81000
Atoms. Timestep: 0
S 10.4976 -14.1248 11.6334
S 10.984 -14.6245 11.2807
S 11.4666 -14.7912 11.7562
S -14.6745 14.9367 -11.6936
S -14.8923 -14.8166 -11.4988
S -14.984 -14.6867 -11.7533
S 10.5028 -11.6025 2.39377
S 10.3316 -11.1186 2.18346
S 10.6823 -10.9959 1.802
S -5.69701 1.32178 3.46422
S -5.67021 0.85349 3.58116
S -5.42562 1.06661 3.24856
S -12.4135 13.3616 -3.50855
S -12.8876 12.9465 -3.96882
S -12.9433 12.9384 -4.20822
S -14.1133 2.34478 -9.15481
S -14.4928 2.82359 -9.433
S -14.4046 3.30683 -9.68758
S 1.10792 7.17351 -8.17861
S 1.12535 6.88794 -8.49946
S 1.61999 6.60212 -8.0135
S 9.44438 -8.83922 6.47893
S 9.28136 -8.63756 6.75822
S 9.42603 -8.73244 6.39319
S 5.16388 3.24665 -2.97807
S 5.16335 3.28503 -2.70945
S 4.89018 3.04379 -3.02586
S -8.54066 -0.62048 8.54513
S -8.08025 -0.59885 8.66741
S -8.56336 -1.0221 8.39063
S -5.10583 -6.24769 7.88483
S -4.73397 -6.35916 8.1338
S -4.26843 -6.33716 8.14911
S 14.5572 -12.5125 -1.11025
S 14.3262 -12.968 -1.32451
S 14.4823 -12.7017 -0.85438
S 1.20112 -8.79366 -10.7889
S 1.37841 -8.51053 -10.583
S 1.11663 -8.20719 -10.6182
S 14.6773 0.98808 -2.96273
S 14.9339 0.62407 -2.59246
S -14.8409 1.08105 -2.93854
S -1.14487 -13.7215 2.53989
S -1.44082 -13.891 2.82339
S -1.13718 -13.4489 2.80829
S -5.56506 -1.25948 -11.5164
S -5.23272 -1.06258 -11.5861
S -5.58644 -1.01538 -11.6676
S 14.6496 -8.48805 -11.8013
S 14.2213 -8.94088 -11.8142
S 14.6926 -9.15013 -12.0195
S -4.03243 10.2583 3.46143
S -4.39578 10.6376 3.34324
S -4.68261 10.3929 3.38851
S 13.172 11.1315 -2.27095
S 13.2052 10.7807 -1.77351
S 13.5385 11.2065 -1.84146
S 11.2969 -3.4012 -12.7094
S 11.2594 -3.28313 -12.6278
S 11.2863 -3.47373 -12.5596
S -11.2589 -11.7295 5.63266
S -11.5232 -11.9117 6.10091
S -11.1194 -12.3959 5.97264
S 10.8677 11.4048 7.21203
S 10.9529 11.2258 6.88103
S 10.6875 10.8979 6.90169
S -3.48693 2.30878 -14.4318
S -3.29956 2.34136 -14.8184
S -3.5358 2.52162 14.7422
S -8.42614 -9.97334 10.1466
S -8.16836 -9.71859 10.4267
S -7.82 -9.24994 10.8404
S -2.32077 -2.21174 12.289
S -2.56619 -2.38058 12.0735
S -2.72743 -2.10988 12.0837
S 1.08445 -10.9182 -9.06289
S 0.67648 -11.0232 -8.62104
S 1.08739 -11.3776 -9.10609
S -7.56864 7.28156 7.06002
S -7.37451 7.58207 7.23929
S -7.60967 7.39223 6.91829
S 10.1855 -6.95166 -7.82666
S 10.4553 -6.92793 -7.62838
S 10.8673 -6.55415 -8.00347
S -8.80924 13.6843 1.95586
S -9.04018 13.9476 2.44483
S -8.99486 13.5145 2.56632
S 14.0735 3.89823 -13.6401
S 14.4259 4.03758 -13.4063
S 14.824 4.10619 -13.1076
S 5.78302 -8.3025 -9.38526
S 5.56099 -8.22439 -9.33956
S 5.74336 -7.90162 -8.8841
S -9.35837 9.21503 -1.58781
S -9.15083 9.65121 -1.47547
S -9.17809 9.17801 -1.78471
S -8.6794 -3.92849 -8.57633
S -8.3974 -4.4068 -8.49185
S -8.17701 -4.42876 -8.3457
S 7.16562 14.4142 -3.13548
S 7.34934 14.913 -3.21608
S 7.54882 14.6341 -3.59819
S -5.32438 -1.98014 -5.03574
S -5.01959 -2.20724 -4.83388
S -5.19673 -2.29064 -4.7366
S 13.8466 -5.1086 -11.6654
S 14.1146 -5.11064 -11.2474
S 14.344 -4.95423 -10.9085
S -14.7761 -12.1321 -13.1747
S -14.4165 -11.8838 -13.3753
S -14.1805 -12.0632 -13.6251
S -6.00048 -3.72854 0.95848
S -6.12905 -3.74623 0.6604
S -6.15483 -3.45924 1.1182
S -6.83157 -1.74799 14.8996
S -7.20749 -2.00234 -14.6161
S -7.20652 -1.71068 -14.1998
S 4.71523 -2.89941 9.91259
S 4.89799 -2.51945 10.131
S 4.77162 -2.04375 9.86979
S -12.0738 -4.28929 0.3805
S -12.2506 -4.2077 0.53443
S -12.749 -4.1485 0.41688
S -9.25741 8.35734 0.08338
S -9.54943 8.10633 -0.21118
S -9.29541 8.18181 0.02851
S 14.2528 -9.76345 2.5313
S 13.9352 -10.0406 2.14513
S 14.2335 -10.2788 2.5237
S 13.1521 -5.16367 -5.55028
S 13.6418 -5.59496 -5.14539
S 13.4454 -5.68326 -5.50478
S -2.66121 -6.16107 -4.24179
S -2.72837 -6.24897 -4.4287
S -3.15123 -6.00923 -4.71158
S 2.89837 11.2384 0.58791
S 2.43859 11.5111 0.86241
S 2.2498 11.7597 1.24172
S 10.9351 -13.1149 -14.4896
S 10.7317 -13.5189 -14.922
S 10.9809 -13.8756 14.6548
S -10.0815 -1.29622 6.01434
S -9.6203 -1.65288 6.45077
S -9.44459 -1.29054 6.24494
S 1.79383 11.5954 0.87396
S 2.28657 11.593 0.75951
S 2.37365 11.7773 0.79497
S 14.7085 -7.25047 -9.79096
S 14.6062 -7.08276 -9.82564
S 14.5229 -6.71974 -10.1878
S -13.6612 14.1891 6.13813
S -13.5175 13.8816 6.08114
S -13.2647 13.8084 6.37232
S 3.8835 -7.52342 12.1464
S 3.73108 -7.47811 12.2311
S 3.9021 -7.31873 11.978
S -14.0429 6.75634 7.42465
S -14.4635 7.20669 7.37974
S -14.6293 6.93221 7.79163
S 10.3984 3.80934 -0.78725
S 10.1138 3.49125 -0.89959
S 9.70276 3.60684 -1.11388
S 10.9449 11.9011 9.23084
S 11.1144 12.3803 9.18916
S 11.6141 12.0905 8.90226
S -6.71196 8.21252 -14.6461
S -7.13536 8.59119 -14.6957
S -6.98203 8.21179 -14.9006
S -8.71835 5.16134 -3.10739
S -8.61756 5.03001 -3.12343
S -8.80704 5.48022 -2.67434
S -4.79563 -3.49716 -14.1853
S -4.88316 -3.38797 -13.7615
S -5.23484 -3.69943 -13.3428
S 6.53527 1.84518 10.0239
S 6.66718 1.53737 9.99994
S 7.06295 1.36818 10.32
S -7.19124 -0.65791 -12.3988
S -6.9231 -1.12192 -12.0791
S -7.07662 -0.62814 -12.4702
S -7.45372 -4.89524 -8.14282
S -7.27304 -5.02451 -8.08457
S -7.36461 -5.10565 -7.85196
S -5.39464 -6.14821 7.10649
S -5.15417 -5.76183 6.93313
S -5.53255 -5.82694 6.51733
S 9.93281 -6.245 -11.9468
S 10.2081 -5.79127 -11.6806
S 9.793 -6.05155 -11.222
S -10.7095 8.05591 11.5498
S -11.0507 7.81091 11.4504
S -10.8852 8.2695 11.4342
S -7.71627 14.4975 10.9742
S -7.91056 14.0518 11.3099
S -8.01266 14.0952 11.5061
S -3.62928 7.47387 13.7657
S -3.25552 7.08694 14.2258
S -3.48282 7.18615 14.4056
S -13.6667 10.9727 7.12243
S -14.0234 10.8743 7.29331
S -14.2031 10.3971 7.37147
S 12.2948 -9.96676 -12.1867
S 11.9126 -9.56013 -12.5135
S 11.4925 -9.61026 -12.5587
S -9.7541 6.23527 -12.6361
S -10.0878 6.63711 -12.6908
S -10.34 6.81292 -12.3958
S -4.21308 -3.1776 6.71394
S -4.49415 -2.71644 6.79064
S -4.37477 -2.8401 6.86994
S 8.10452 12.2713 -3.64132
S 7.61345 12.7383 -3.51438
S 8.07414 12.5968 -3.31565
S 7.41001 1.72675 -6.521
S 7.00788 1.78304 -6.39064
S 6.87491 2.26293 -6.86575
S -3.53052 -2.33301 7.05983
S -3.51985 -2.3983 7.26802
S -3.8657 -2.31669 7.41777
S -4.13163 9.3799 14.3895
S -4.40911 9.77206 14.3952
S -4.84525 10.1911 14.0475
S -10.6209 0.10706 -1.9135
S -10.2016 0.00593 -1.5472
S -9.96201 -0.07669 -1.91068
S -10.3806 13.5003 -9.91036
S -9.92086 13.4882 -9.83659
S -10.1003 13.5597 -9.48673
S 13.207 3.14846 -1.82604
S 13.2405 3.35044 -1.69318
S 13.2798 3.58907 -1.85478
S 12.5344 7.23765 3.00182
S 12.3872 7.25912 2.51222
S 12.0875 6.93539 2.03163
S -12.3044 -6.54726 12.1529
S -12.6353 -6.52788 12.355
S -12.6185 -6.75499 12.7432
S 10.4664 6.83675 -12.4142
S 10.7006 6.96253 -12.292
S 11.0385 7.37509 -12.4479
S -7.01142 -4.76829 13.8897
S -6.86105 -5.07021 14.0884
S -6.79458 -5.26182 14.4392
S -8.1497 0.63241 -2.93238
S -7.74124 0.87241 -3.24933
S -7.40344 1.14005 -3.65067
S 11.0109 -8.30671 12.4445
S 11.0901 -8.2855 12.0179
S 11.0432 -8.37911 12.3864
S 4.67284 14.2422 -7.07946
S 4.92214 14.3381 -6.9858
S 4.89404 14.1247 -7.17292
S 13.7347 5.16129 11.7652
S 13.4517 5.11777 12.0052
S 13.6134 5.05417 11.8278
S -10.8031 -10.1472 13.8231
S -10.371 -10.0614 13.4459
S -10.1985 -9.61646 13.9059
S -13.7119 -8.48146 -3.9795
S -14.0572 -8.71156 -4.43218
S -14.0377 -8.37118 -3.95712
S -2.65331 6.95289 -10.2088
S -2.21461 7.38869 -10.6099
S -1.94814 7.6788 -10.4781
S 14.003 -2.45982 -1.41592
S 13.8884 -2.27025 -1.41743
S 13.4124 -2.74075 -1.13293
S 8.47675 -13.4688 4.66701
S 8.18288 -12.9811 4.6468
S 8.54087 -12.599 4.32185
S -4.66119 14.0308 -8.68144
S -4.93421 14.0803 -9.11116
S -5.04834 14.4103 -9.31182
S 12.3165 7.49236 -2.65612
S 12.2768 7.65945 -2.28421
S 12.1612 7.36654 -2.2151
S -12.3707 -10.793 -14.73
S -12.2868 -10.5609 14.7719
S -12.4053 -11.0019 14.9622
S 8.13862 -5.57058 -12.2247
S 8.03239 -5.44694 -12.3668
S 8.02418 -5.8335 -11.9702
S 8.74959 -7.10846 5.30759
S 9.05966 -7.0775 5.49271
S 9.1844 -7.21562 5.86528
S -11.5478 -11.4115 7.55588
S -11.7164 -11.5456 7.83544
S -12.0344 -11.1341 7.5644
S 13.6815 4.35008 -6.08517
S 13.5185 4.64562 -5.71289
S 13.923 5.03776 -5.24258
S -4.57255 -5.91619 5.99806
S -4.41028 -5.61906 6.23587
S -4.26244 -5.7325 6.49498
S -10.3349 -11.2597 -11.5674
S -9.89267 -11.7215 -11.6424
S -10.0235 -11.304 -11.9197
S 6.78865 0.82832 6.41646
S 6.59991 0.46414 6.24033
S 6.88465 0.43977 6.40599
S 1.35614 11.2174 -7.79102
S 1.25542 10.8518 -8.19947
S 1.26384 11.1854 -8.59794
S -9.94275 13.0428 11.8255
S -9.64986 13.0638 11.989
S -9.59453 13.5185 12.1829
S -13.3384 9.94159 -1.30861
S -13.0091 9.80707 -0.90103
S -13.1833 9.67279 -0.40736
S 11.4109 -11.2636 -14.1014
S 11.3962 -11.1584 -13.7927
S 11.7082 -11.6508 -13.5343
S -9.60047 -7.89914 -9.72077
S -9.52135 -8.37202 -9.88561
S -9.50611 -8.58104 -9.75198
S -3.99269 4.80434 3.23707
S -3.63191 4.55126 3.05136
S -4.07891 4.50333 2.87356
S 10.4239 -5.01403 14.7173
S 10.4374 -4.70683 14.4018
S 10.2565 -5.17199 14.6827
S 9.43649 -6.47667 -12.0182
S 9.02859 -6.97541 -12.1774
S 9.11094 -6.76663 -11.8306
S -3.6774 1.32312 0.21012
S -3.57991 1.51539 0.52791
S -3.2125 1.49142 0.9631
S 3.03313 11.9748 -8.31961
S 3.18339 12.0516 -8.17788
S 2.98237 12.4643 -8.66967
S -12.407 -4.71312 -2.75474
S -12.7774 -4.98501 -3.04548
S -12.9989 -5.46494 -2.64043
S 5.37363 6.56953 10.6989
S 5.77208 6.60338 10.562
S 5.45306 6.87796 10.5537
S 8.352 -1.06108 -4.11233
S 8.72959 -1.04617 -4.01161
S 9.11606 -1.54566 -3.9254
S 6.9079 -9.30125 7.22955
S 7.26847 -8.82769 7.49057
S 7.19935 -9.25242 7.50931
S -2.26949 -3.8916 -5.59035
S -2.57413 -4.2521 -5.50972
S -2.25379 -4.71031 -5.1109
S -8.18964 -10.2217 14.1891
S -8.55844 -10.4462 14.5455
S -8.30488 -10.8278 14.6477
S 13.3753 2.50044 12.4968
S 13.2481 2.70634 12.107
S 12.8888 2.9776 11.6661
S -9.46731 7.99724 -13.2316
S -9.73133 8.4171 -12.8287
S -9.42333 7.92021 -12.8302
S -10.7262 -6.50174 -7.9593
S -10.5433 -6.15353 -7.69099
S -10.3174 -5.82649 -7.21162
S -9.02492 -14.7229 -13.4732
S -9.51103 -14.8744 -13.1023
S -9.22759 14.8395 -12.8328
S 3.24703 -14.9582 14.796
S 3.70782 -14.6555 -14.813
S 3.75682 -14.2321 -14.5523
S -10.535 1.40909 5.38265
S -10.3179 1.59612 5.47981
S -10.7441 1.57736 5.40918
S 6.23524 -14.63 0.19342
S 6.5714 -14.1901 0.45811
S 6.12435 -14.3505 0.64698
S -5.06953 4.24196 -12.5816
S -4.93219 4.7231 -13.0416
S -4.87821 4.2503 -12.9164
S -12.953 14.0266 5.28999
S -12.6206 14.4052 5.24848
S -12.5047 14.817 5.28068
S -1.78835 -11.9818 -9.2616
S -1.90659 -12.3688 -9.62444
S -2.07645 -11.9429 -9.59147
S 0.32031 -9.31674 -8.37521
S 0.72609 -9.74968 -8.40996
S 0.35937 -9.69291 -7.9751
S -5.61438 -2.24061 0.75204
S -5.76851 -2.58943 0.93775
S -5.42283 -2.30373 0.70168
S 2.54167 -10.1169 9.79257
S 2.333 -9.65083 9.36884
S 2.51855 -9.21359 9.58222
S -3.65412 -8.04663 2.08387
S -3.58073 -7.97339 2.2972
S -4.08045 -7.74409 2.69318
S 2.26599 13.4809 7.89287
S 1.91219 12.9832 7.8527
S 1.48433 13.1169 7.463
S 12.2422 6.98905 -10.325
S 11.9608 7.00184 -10.1922
S 11.9972 7.03541 -9.88442
S -13.4636 8.86699 -6.7559
S -13.149 8.3746 -6.31254
S -13.2673 8.69322 -6.56145
S 4.48829 -3.41145 -6.00934
S 4.48373 -3.29204 -6.20481
S 4.84571 -3.53974 -6.55242
S 4.31159 -0.68046 -0.42977
S 4.71047 -0.28783 0.03634
S 4.53958 -0.16045 -0.4226
S -0.52642 6.6731 9.37256
S -0.64581 6.93564 8.93492
S -0.47808 6.86375 9.29073
S 0.58678 7.01671 0.00805
S 0.12424 7.41063 -0.12246
S -0.07021 7.53086 -0.29816
S 12.6885 11.836 6.82871
S 12.7933 12.1827 6.78473
S 12.4124 11.9726 6.61763
S -12.5151 10.0771 13.3041
S -12.4365 10.347 13.3981
S -12.1129 10.3813 12.9072
S -7.12077 3.05933 -1.71658
S -6.75673 3.15428 -1.46492
S -6.35818 2.70516 -1.40049
S -0.96403 2.31767 8.76668
S -0.95625 2.67101 9.12868
S -1.23317 2.82214 9.38227
S 8.38457 3.83753 1.77823
S 7.98994 3.66081 2.24606
S 7.91862 3.90009 2.72997
S 6.26372 -13.3624 7.72116
S 5.81115 -13.0591 8.01655
S 5.71638 -13.3641 8.41846
S -14.5517 1.80744 -8.53443
S -14.5483 1.32744 -8.99209
S -14.7981 0.87973 -8.94325
S 9.99752 8.3309 6.82205
S 10.2715 7.99083 7.15161
S 10.3373 8.40475 7.60213
S 6.15892 -14.7138 -8.77576
S 6.23887 -14.9098 -9.09587
S 6.58669 -14.4537 -9.0459
S -5.52989 -2.00294 -5.09645
S -5.4638 -2.43525 -4.85496
S -5.51413 -2.07796 -5.021
S -7.71627 -13.9729 -3.27045
S -8.10543 -14.4327 -3.31754
S -7.64745 -14.9075 -3.73133
S -3.39789 -0.53069 -8.81942
S -2.94857 -0.88216 -8.75423
S -2.82013 -0.75019 -9.0767
S -7.72537 7.987 1.77956
S -7.85161 7.80982 2.20519
S -8.20095 7.80181 1.89139
S -1.59959 4.36808 -13.0203
S -1.58352 3.99857 -13.1936
S -1.39634 4.11132 -12.7986
S 0.53557 1.33255 4.32099
S 0.60459 1.25485 4.69337
S 1.07558 1.24675 4.21157
S 3.81458 -1.84149 -10.8963
S 4.04737 -1.35245 -10.5108
S 3.55986 -1.63305 -10.103
S -13.8704 -2.19212 -14.6588
S -14.1458 -2.14036 14.8949
S -14.1874 -1.68791 -14.7817
S 8.95771 -11.1778 -1.67774
S 8.76157 -11.4569 -1.53764
S 8.68731 -11.8863 -1.5544
S -4.98375 -2.19939 -4.18502
S -5.24042 -2.06578 -3.78963
S -5.62857 -1.91702 -4.12339
S -8.09808 -11.8148 11.6546
S -7.96754 -11.5875 11.4426
S -8.04606 -12.0848 11.8484
S -11.2136 0.09154 1.46494
S -11.4635 0.37462 0.96933
S -11.7603 0.46145 0.71024
S -7.8928 -9.81969 12.5907
S -8.02858 -10.1869 13.0359
S -8.43839 -10.0877 12.8532
S -4.28112 3.56677 0.92791
S -3.817 3.60557 0.75279
S -4.23043 3.40257 0.31673
S 6.45559 8.70309 -12.4188
S 6.31901 8.55621 -12.8869
S 6.3968 8.55509 -12.5943
S -8.90671 -9.29547 3.23236
S -8.48301 -9.41413 3.6242
S -8.07948 -9.81897 3.46732
S 9.81198 -0.04263 5.79643
S 10.2293 0.30721 5.39335
S 9.79894 0.70205 5.39362
S -4.16329 2.7283 8.21384
S -4.09023 2.75402 7.98953
S -3.69779 2.5131 7.59557
S 5.28045 10.7534 -7.76201
S 5.22285 10.6144 -7.97591
S 5.30909 10.5125 -7.56023
S 12.0318 -9.76025 13.5309
S 11.8055 -9.57987 14.0267
S 12.2894 -9.83798 13.9738
S 3.96078 -14.8115 -6.0424
S 4.3726 14.8061 -5.60621
S 4.14135 14.6085 -5.37125
S -5.56354 6.00431 -2.21548
S -5.91883 5.98223 -2.4459
S -6.22711 6.41843 -2.09802
S -3.96519 7.2425 1.19422
S -4.27962 7.56813 1.59257
S -4.41061 7.90183 2.05947
S 0.83764 -12.608 -13.6588
S 0.43982 -12.9782 -14.134
S 0.37343 -12.8706 -13.8598
S -11.8835 13.9005 12.4836
S -12.3237 13.4308 12.4598
S -12.0002 13.79 12.6231
S -11.9499 11.7489 7.26018
S -11.5633 11.4199 7.15687
S -11.7664 11.5308 7.16124
S 0.01714 11.477 -5.53168
S 0.36077 11.0066 -5.92258
S 0.59375 11.258 -6.40218
S 11.0177 10.2631 14.7836
S 10.7458 10.0375 14.8412
S 10.4663 9.58025 14.8377
S 12.0894 2.79581 -13.7886
S 12.1533 2.368 -13.3147
S 11.9193 2.45416 -13.1373
S -8.24177 4.79583 2.54728
S -8.33823 5.2023 2.72663
S -8.09621 5.65293 3.13587
S 3.54437 8.74216 -5.98933
S 3.41004 8.26166 -5.79689
S 3.74132 8.42746 -5.85191
S -3.64664 2.53636 8.76476
S -3.68842 2.99358 8.2989
S -3.46265 3.3843 8.34445
S -11.19 9.58735 11.7135
S -11.1389 9.62594 11.7939
S -10.8076 9.77997 12.0264
S -6.79329 -6.86429 -1.5051
S -6.57473 -6.59638 -1.35898
S -6.45766 -6.94967 -1.00659
S -2.95099 -3.3138 -14.788
S -2.81205 -3.62584 -14.8526
S -2.4885 -3.38051 -14.9904
S -2.61851 -5.96632 13.3964
S -2.99045 -5.56111 12.9885
S -3.46217 -5.32738 12.8522
S -5.58404 11.8418 -0.42056
S -5.94197 11.4724 -0.72662
S -6.10182 11.5041 -1.07302
S 7.76307 5.91719 14.1003
S 8.05306 5.83991 13.7616
S 7.68785 6.16641 13.7684
S 4.27115 14.1008 -0.78717
S 4.26415 14.2645 -0.40335
S 4.53157 14.1297 -0.36974
S 10.0769 -6.10238 -2.95366
S 10.1776 -6.56018 -2.62859
S 10.3961 -6.28201 -2.85566
S -14.9355 10.6676 -12.5652
S 14.842 11.023 -12.31
S -14.8514 11.4627 -12.085
S -14.5442 3.68565 3.7007
S 14.9985 4.02258 4.17786
S -14.6203 3.74295 3.82929
S 12.1515 6.42241 -1.33971
S 12.4281 6.30549 -1.50678
S 12.4923 6.73488 -1.10746
S 12.044 14.8872 5.5679
S 12.2605 14.8607 5.48689
S 12.5983 -14.9293 5.64871
S 13.5132 -6.78719 3.73576
S 13.8541 -6.92156 4.03296
S 13.5426 -7.41286 4.02802
S -4.60308 7.05537 -3.1414
S -4.26143 7.35398 -3.5178
S -4.05307 7.82069 -3.60685
S 2.07409 -5.24284 4.74171
S 1.7134 -5.44211 4.4049
S 2.08472 -5.23989 4.74124
S -3.86079 -12.8451 8.61942
S -4.3071 -12.9393 8.9617
S -3.94698 -12.5013 8.76099
S 8.688 -13.2598 -12.3665
S 9.17725 -13.5111 -11.9122
S 8.69475 -13.5303 -12.3982
S 3.05733 3.2144 -14.3074
S 3.17675 3.68705 -14.2146
S 2.90215 3.61511 -14.2601
S -0.91099 -14.5408 12.0208
S -0.92507 -14.6038 11.554
S -0.93631 -14.235 11.3176
S -6.78695 10.9343 7.05789
S -6.77154 10.6007 6.89411
S -6.49105 11.0701 6.86622
S 10.4562 -3.44165 11.1258
S 10.0233 -3.61159 10.6798
S 9.9619 -3.15373 10.6369
S 7.03966 1.0278 13.9507
S 7.51356 1.15339 14.1878
S 7.75594 1.07085 14.4402
S 4.43576 -3.50429 13.0077
S 4.45875 -3.03985 12.5463
S 4.7519 -3.36036 12.6983
S 2.13667 -3.34387 -2.75702
S 2.35498 -3.55067 -2.26781
S 2.243 -3.19354 -2.71844
S 7.31989 -10.6772 9.57841
S 7.71585 -10.6573 9.97132
S 8.19031 -10.24 9.60646
S 3.60267 -8.90113 -6.49866
S 3.20776 -9.01139 -6.78195
S 2.7564 -8.72927 -7.12479
S -7.4037 -3.42009 -4.34691
S -6.93234 -3.62344 -4.70918
S -7.25341 -3.54906 -4.74892
S -9.15543 -2.03863 -13.0247
S -8.76382 -2.11063 -12.8995
S -8.38138 -1.83996 -13.2005
S -13.5319 -5.78746 -1.13649
S -13.3139 -5.52846 -1.54508
S -13.6049 -5.5034 -1.63295
S 3.88761 -13.9927 -5.93162
S 4.12711 -14.4619 -6.07794
S 4.1675 -14.8875 -6.44484
S -14.0167 7.5249 -11.8483
S -13.8663 7.46422 -11.651
S -14.2831 7.67601 -11.2008
S 14.0843 -4.34824 0.07387
S 14.0282 -3.96889 0.03063
S 13.9525 -3.74247 -0.19581
S 7.8209 10.6738 4.13884
S 7.3934 10.9652 4.37908
S 7.29025 10.8978 4.68528
S -3.62815 13.9352 -11.7899
S -3.94152 14.2831 -12.0155
S -4.1935 14.5637 -12.0792
S -1.45995 -7.73384 -2.68135
S -1.15013 -7.52831 -2.8377
S -1.31404 -7.80601 -2.61685
S -10.3873 -8.19531 9.3217
S -10.0427 -8.18643 9.55551
S -10.2129 -7.7561 9.93022
S 13.9078 10.2588 4.46361
S 13.854 10.6259 4.69276
S 14.2521 10.5984 4.32536
S 8.88746 -8.54572 14.6822
S 9.08738 -8.47053 -14.9827
S 9.08183 -8.42996 14.7025
S -10.6641 0.80703 -0.40337
S -10.9913 0.79182 -0.50804
S -11.0884 1.09348 -0.87997
S -6.55704 -14.4973 5.21013
S -6.30435 -14.5245 4.85643
S -6.71258 -14.7812 5.17303
S 8.66369 -10.0557 -5.77156
S 9.10013 -9.62829 -6.15793
S 9.15532 -10.0545 -6.27968
S -6.85569 7.30163 4.22288
S -6.50359 7.3192 3.81088
S -6.50369 7.70501 3.33748
S 5.71857 6.98509 3.94406
S 5.72734 7.30783 4.39044
S 5.25928 7.57569 4.85171
S -11.1333 12.3833 6.97923
S -11.3185 12.1277 7.33935
S -11.7197 12.4662 7.16075
S -7.75112 13.9936 -7.30224
S -8.09316 14.0398 -7.3461
S -8.56521 13.6511 -7.27694
S 1.79515 -14.763 -5.04853
S 2.10243 -14.9602 -5.40132
S 2.33414 -14.786 -5.07143
S 10.2519 10.9773 -8.49538
S 10.7361 10.7008 -8.96807
S 10.8097 10.9663 -9.42254
S 1.45331 -9.46965 9.11
S 1.22461 -9.30157 8.96019
S 1.48765 -8.86836 9.18723
S -14.4088 1.58403 8.17702
S -13.983 1.22099 8.41919
S -14.1719 1.037 8.6923
S 13.3698 -13.6418 -5.47047
S 13.2352 -13.4788 -5.12778
S 12.8637 -13.8036 -5.17161
S -14.8327 1.27946 0.63379
S -14.9901 1.04883 0.46359
S 14.7924 1.30948 0.30594
S -14.3838 -5.57963 11.3393
S -14.4746 -5.3603 11.41
S -14.8949 -5.34639 11.6319
S -9.44793 5.82402 -3.35445
S -9.06328 5.73027 -3.42375
S -8.83715 6.18449 -3.00025
S -2.89771 -5.6931 14.3281
S -3.28722 -5.28904 14.7455
S -3.24931 -5.37126 -14.8093
S 12.0981 -4.95312 -5.40335
S 11.9278 -5.16941 -5.26944
S 11.8103 -4.95963 -4.89832
S 5.47187 4.8536 1.84068
S 5.19669 4.85417 2.24118
S 5.61082 4.39797 1.7546
S 9.9524 12.5348 0.09117
S 10.1326 12.5881 0.03845
S 10.6182 12.8812 0.3249
S 5.04424 14.4356 12.595
S 5.51624 14.8949 12.1257
S 5.31929 -14.7553 12.0588
S -3.54194 3.65539 2.06543
S -3.98217 3.44329 1.67857
S -3.89917 3.45852 1.66847
S 3.0125 -10.9932 0.59002
S 2.94785 -10.9834 0.30823
S 2.53957 -10.9405 -0.00315
S -7.25671 0.73276 9.77924
S -6.75988 0.66704 9.78082
S -6.71878 0.47945 9.77987
S 7.47543 -12.3349 -8.55141
S 7.97355 -12.8187 -8.84755
S 7.86431 -13.2878 -8.7441
S -6.24706 -13.8202 -6.34975
S -6.60914 -14.2956 -6.81291
S -7.03428 -14.4357 -7.11648
S 0.71554 6.81503 -8.37512
S 0.28424 6.4768 -8.14148
S -0.08716 6.11768 -8.4051
S 0.06303 8.74323 1.10121
S -0.12647 9.22084 1.49057
S -0.5659 9.71064 1.21603
S -10.5783 -13.637 -10.2258
S -10.1802 -13.4392 -10.5692
S -9.70101 -13.8569 -10.8081
S -3.62816 -3.18928 -7.3626
S -3.25156 -3.3818 -7.1908
S -2.90703 -3.5134 -6.75715
S 2.75296 -6.6817 -0.67455
S 2.51717 -6.60189 -0.26469
S 2.15142 -6.80636 -0.45134
S 1.40082 5.7016 -0.92802
S 1.66009 6.02515 -0.69669
S 1.53288 6.00703 -0.3458
S 0.88819 13.5112 2.25267
S 0.76721 13.1233 1.95298
S 0.81402 12.6235 1.77876
S -13.5505 10.616 7.3204
S -13.7454 10.7376 7.58017
S -14.15 10.9761 7.80314
S -3.17972 -2.26789 2.62589
S -3.02302 -1.85488 2.78558
S -2.64032 -1.84703 3.1432
S -8.53585 0.1717 -9.77641
S -8.13629 0.35697 -9.5427
S -8.06679 0.08914 -9.30781
S 5.21274 -8.42339 3.52794
S 5.63792 -8.8921 3.61486
S 5.25777 -8.91991 4.01228
S -11.5324 12.2794 8.7461
S -11.61 12.3189 8.50483
S -11.9174 12.7691 8.59919
S 13.6734 13.9767 -1.80366
S 13.73 13.7406 -1.65682
S 13.727 13.6427 -1.37378
S 13.3979 9.947 -2.65727
S 12.9245 10.2929 -2.23571
S 12.9695 9.88272 -2.24381
S -9.12416 9.08858 12.9082
S -9.29856 8.68711 12.5645
S -9.60287 8.96344 12.7017
S 13.3417 0.52911 -14.8771
S 13.2486 0.72237 -14.9852
S 13.5678 0.53526 14.9881
S 9.60929 13.5855 -11.5346
S 9.89534 13.5642 -11.3077
S 9.74919 13.761 -10.9518
S -3.53812 6.30491 -0.81995
S -3.61876 6.71965 -0.42196
S -3.24451 6.87101 -0.63091
S -5.17265 -5.23133 -2.4294
S -5.38457 -5.45043 -2.80691
S -5.17921 -5.33876 -3.08613
S 14.1368 -4.82433 14.9022
S 14.4108 -5.27973 14.8927
S 14.3367 -5.12847 -14.7484
S 6.22106 -0.72011 13.5796
S 5.91794 -0.58656 14.0165
S 5.84022 -1.07897 14.3154
S 6.10513 -14.5764 -6.53462
S 5.94579 -14.4469 -6.91073
S 5.7093 -14.2636 -7.38891
S -5.72501 3.52773 3.90956
S -5.29598 3.6091 4.29468
S -5.19804 3.17976 3.89746
S 4.03968 12.1242 -6.45423
S 4.072 12.497 -6.44015
S 4.49593 12.1244 -6.48222
S 14.2705 -8.99764 0.40778
S 13.9271 -8.96945 0.9045
S 14.421 -8.95093 1.35984
S 14.8109 -4.60266 12.4125
S -14.9276 -4.33204 12.6025
S 14.8046 -4.54551 12.3037
S 4.57508 -4.49813 13.2906
S 4.49507 -4.34927 13.7221
S 4.91605 -4.22355 13.8408
S 11.7207 0.13118 3.35226
S 11.7536 -0.00591 3.60548
S 12.0423 0.44123 3.40555
S 10.1396 -6.28408 -9.66499
S 10.1256 -5.8142 -9.26795
S 9.69374 -5.53625 -9.47707
S 3.84169 9.79107 -12.3541
S 4.20295 9.66934 -12.638
S 4.4528 9.23873 -12.7526
S -11.673 -1.01797 -7.37403
S -11.7781 -1.18528 -7.11419
S -12.2271 -1.35738 -6.61664
S 8.52757 3.56596 -13.5455
S 8.12577 3.22056 -13.1251
S 8.38843 3.40851 -12.8061
S 6.68747 13.5185 10.8491
S 6.56782 13.0696 10.3695
S 6.84299 13.0724 10.5261
S -6.34191 9.11163 11.5311
S -5.937 8.99124 11.7553
S -5.78517 8.49679 11.6979
S -3.17815 -12.1593 1.74275
S -2.83232 -11.8192 1.85374
S -3.20691 -11.8935 1.73491
S 4.54011 -4.16505 3.16995
S 4.28453 -3.92638 3.28528
S 4.47589 -4.24004 3.39379
S -9.07302 -14.6559 1.24166
S -8.96257 -14.9805 1.42366
S -8.75808 14.9936 1.55053
S 12.1409 2.78862 1.57174
S 11.8034 2.66593 1.24658
S 12.2971 2.39718 1.16326
S -9.07897 7.68223 13.2655
S -9.20464 7.31871 13.0487
S -8.74776 6.94026 13.1437
S -14.5857 -10.2467 2.01439
S -14.9967 -10.7148 2.23889
S -14.571 -10.3407 2.0839
S -10.6378 -14.8639 -10.0399
S -10.2967 14.9074 -10.2908
S -10.0428 14.5203 -10.6745
S 5.01799 2.40873 -3.23008
S 5.43402 2.46776 -3.33738
S 5.29543 2.73952 -3.82794
S -11.6012 -10.5903 -2.66577
S -11.1195 -10.3193 -2.78105
S -10.6227 -10.2384 -2.9406
S -10.6933 6.11498 -10.4044
S -10.4235 5.6858 -9.97108
S -10.2503 5.62684 -10.1694
S 11.9547 3.18837 -8.10262
S 11.57 3.1505 -8.24653
S 12.0533 3.0807 -8.36057
S 11.7032 -13.2344 -12.9233
S 11.4005 -13.0112 -12.7108
S 11.4885 -13.4032 -12.3004
S 8.23875 1.23485 -0.06654
S 8.71019 1.08737 -0.09999
S 8.56882 0.81085 0.10634
S 10.74 0.89686 3.40407
S 11.2264 1.03918 3.76668
S 10.7472 0.77269 4.17789
S 4.66519 -8.59117 -3.36747
S 4.98427 -8.65579 -3.24323
S 5.37832 -8.20047 -3.1057
S -9.10036 6.49495 -9.11933
S -8.62097 6.88514 -9.57059
S -9.02047 7.3599 -9.08209
S -14.5522 12.3531 -14.497
S 14.9736 12.5207 -14.9467
S 14.6901 12.4118 14.8843
S -9.93404 9.03795 -4.17713
S -9.85873 9.43355 -4.03805
S -9.44951 9.60901 -4.46167
S 11.1039 -1.49237 4.97649
S 10.7676 -1.15659 5.04293
S 10.9708 -1.41668 4.86164
S -6.36757 13.918 10.3414
S -6.15157 13.6723 9.87255
S -6.37842 13.6124 10.0717
S 0.65399 10.6122 -2.08212
S 0.65551 10.7973 -1.8917
S 0.61903 10.4784 -2.32624
S 7.6638 7.10211 -5.71824
S 7.87605 7.23632 -5.6998
S 8.28299 7.12371 -5.4896
S 14.1787 5.76773 6.07346
S 13.8464 5.69417 5.99595
S 14.1261 5.58345 5.8127
S 3.21249 -4.99308 -1.95333
S 2.76198 -5.31572 -2.10141
S 2.33353 -5.3355 -1.75968
S 13.8089 -13.8665 -9.17892
S 13.7286 -14.0001 -9.13476
S 13.5935 -13.9088 -9.23916
S 12.4239 12.9125 -11.4513
S 12.6173 13.1465 -11.9329
S 13.1152 13.3644 -12.1028
S 12.1555 7.62351 11.8118
S 11.9247 7.65978 11.5489
S 11.9364 7.6232 11.9175
S 2.06133 -7.24115 14.4115
S 1.82535 -7.252 14.904
S 1.52646 -7.37515 -14.9024
S -8.34059 2.86333 10.9766
S -8.38807 2.621 11.3134
S -8.1743 2.62313 11.1921
S 0.55777 -7.2723 12.6431
S 0.50601 -7.63991 13.0351
S 0.47 -7.51857 12.8215
S -7.04475 -12.5606 9.94467
S -6.57007 -13.0262 9.69159
S -7.0354 -13.3983 9.81537
S -9.20441 -14.0416 -11.6983
S -9.5183 -13.9047 -11.855
S -9.9752 -14.2223 -11.6495
S 3.53745 14.2793 3.17217
S 3.87877 14.453 3.31237
S 4.13016 14.139 3.46167
S -1.92746 -0.3744 1.25669
S -2.11388 -0.32753 1.34844
S -2.19417 -0.79554 1.01229
S -5.61306 -9.34297 -0.39794
S -5.1308 -9.2034 -0.40959
S -5.14856 -8.83808 -0.3456
S 3.4074 14.3448 12.0891
S 3.61093 14.7899 11.6283
S 3.76817 -14.9452 11.2272
S -8.49442 -6.05952 -9.29243
S -8.44317 -6.12475 -9.08862
S -8.58727 -6.04194 -9.40164
S 13.0933 -12.7153 4.10002
S 13.5787 -12.2438 4.31867
S 14.009 -12.1201 4.72264
S 10.8785 -12.632 10.8807
S 10.4181 -12.7323 10.6846
S 9.96876 -13.0131 10.8973
S 4.43179 4.00295 3.3379
S 4.27534 4.4786 3.39933
S 4.32799 4.62873 3.2352
S 14.0353 0.55417 1.01261
S 14.1463 0.56832 0.60861
S 14.2369 0.77965 0.50613
S 7.44007 12.3223 12.0544
S 7.01779 12.5954 11.6928
S 7.09194 12.918 11.7929
S 9.35455 11.0713 -13.9602
S 9.31171 11.5164 -14.2748
S 8.94621 11.7175 -13.7932
S 8.32277 12.1886 -14.4574
S 8.76446 12.3581 -14.1848
S 9.07382 12.0194 -14.649
S 10.6205 12.3051 -10.4428
S 11.1204 11.8124 -10.17
S 11.545 12.0151 -10.2817
S 14.4026 -1.28824 -11.8365
S 14.4348 -1.4112 -11.725
S 14.5787 -1.33176 -11.3463
S -9.59024 -14.4297 4.3227
S -9.88286 -14.6557 3.97611
S -9.83493 -14.5026 3.84367
S -1.91569 -3.68609 2.72363
S -1.47015 -3.44051 2.52741
S -1.07714 -3.2596 2.8232
S -1.66015 13.0825 7.08966
S -1.98349 13.5495 7.13919
S -1.80463 13.2229 7.36835
S -6.48272 7.10302 -7.88424
S -6.58599 7.36945 -7.99454
S -6.5572 6.99843 -7.80114
S -10.049 -6.62231 0.76559
S -10.5167 -6.52921 0.48793
S -10.6298 -6.29533 0.68339
S -6.5202 -10.3652 -12.7333
S -6.3604 -10.6338 -12.9589
S -6.42557 -10.5961 -12.9252
S -1.67494 -13.4954 -8.90095
S -1.31822 -13.7522 -9.34845
S -1.09067 -13.4803 -9.16865
S 1.99684 8.31107 1.14086
S 1.5601 7.95331 1.15683
S 1.09777 8.40084 1.26987
S 2.92257 13.9506 -14.3181
S 2.6377 14.2921 -14.756
S 3.1161 14.6686 14.8559
S -9.05699 11.2766 11.6155
S -8.98318 11.37 11.1613
S -8.7001 10.9515 10.8463
S 3.74488 10.2869 3.915
S 3.60786 10.6126 4.01323
S 3.42111 10.7076 3.51419
S 6.01896 -3.92622 -6.46962
S 6.32543 -4.36843 -6.94437
S 6.24917 -4.21275 -7.30387
S -2.46825 -4.15949 11.5058
S -2.70155 -4.56622 11.3602
S -2.95472 -4.3066 11.1901
S -5.30591 14.7536 -10.5264
S -5.52204 -14.9703 -11.0231
S -5.57725 -14.9692 -10.5348
S 11.0483 -14.5626 14.8265
S 11.4447 -14.1615 14.4424
S 11.4937 -13.9239 14.6373
S 5.53017 4.48723 14.0924
S 5.40892 4.10283 13.7703
S 5.86651 3.78855 13.8965
S -4.30952 0.53337 -9.34693
S -4.25856 0.48299 -9.16085
S -4.26456 0.19034 -8.73338
S -12.1196 -14.5827 8.32176
S -11.8294 -14.2221 8.39563
S -11.7565 -14.028 8.68016
S -6.38102 -8.01151 11.6819
S -6.55084 -7.70643 11.3889
S -6.9514 -8.06683 10.9528
S 5.09081 0.4721 -0.06305
S 4.78095 0.29173 0.22187
S 4.74965 0.6313 0.40593
S -4.4946 8.87717 10.442
S -4.50768 8.9649 10.5362
S -4.67045 9.29189 10.1215
S 3.21734 -2.52433 7.31134
S 3.37251 -2.50277 7.42661
S 3.74658 -2.6623 7.58658
S -3.3312 -2.2467 -2.65362
S -3.13559 -2.59637 -2.42626
S -2.72997 -2.69503 -1.95585
S 8.07977 -14.7466 -12.509
S 8.00575 -14.7373 -12.1443
S 8.19906 -14.6442 -12.1686
S 0.63895 -7.34505 -3.94771
S 0.44106 -7.36674 -4.02071
S 0.8664 -7.04603 -4.04329
S 10.0854 -9.39195 -14.6564
S 10.022 -9.52591 -14.6744
S 10.4271 -9.51763 -14.32
S -11.3381 -4.95305 7.15609
S -11.2584 -4.73272 7.00632
S -10.9761 -4.84156 7.07126
S 7.95211 3.25833 -2.31553
S 8.2825 3.49085 -2.22608
S 8.04583 3.57564 -2.39389
S -11.7556 6.55826 6.96432
S -12.0551 6.82849 6.93293
S -12.5109 6.85219 7.28047
S 12.7696 -6.64636 -0.15444
S 13.073 -6.7553 0.12139
S 13.5132 -6.4083 0.6106
S -1.61031 -4.87142 -12.1905
S -1.9109 -5.21146 -12.4101
S -1.71 -4.82825 -12.386
S -10.0734 -5.27291 9.33817
S -10.3055 -5.34707 9.80985
S -10.0985 -5.37937 10.0554
S -13.2247 -5.02955 -0.50695
S -13.4877 -5.49983 -0.55045
S -13.2927 -5.7834 -0.63608
S -8.26763 8.01781 14.137
S -7.87531 8.47606 14.1761
S -7.56466 8.52951 14.2113
S 2.92016 -3.58695 14.7768
S 2.51999 -3.82495 -14.7258
S 2.94971 -3.37535 -14.7972
S -6.38463 9.21539 -1.19934
S -6.72911 9.69166 -1.17186
S -6.26828 10.0701 -0.8021
S 10.5921 -13.8443 5.8439
S 10.7525 -13.413 5.89721
S 10.314 -13.2392 5.74818
S 9.86003 13.9025 -7.01987
S 9.75954 13.9574 -6.53992
S 10.0047 14.2798 -6.39947
S -7.59491 6.47959 0.99324
S -7.25589 6.53936 0.68417
S -7.49815 6.6872 0.93841
S -1.03183 6.05191 10.0025
S -1.0617 6.20359 9.91529
S -0.82312 6.21915 9.66975
S -8.21313 10.7889 -11.046
S -8.42904 10.4871 -11.1827
S -8.90856 10.0604 -11.0027
S 14.4369 12.6141 2.7581
S 13.977 12.5968 2.83194
S 14.1608 12.6856 3.09155
S 13.1051 -7.02214 -10.3552
S 12.908 -7.32288 -10.6562
S 13.3521 -7.25101 -10.989
S 10.5847 -11.3197 12.3366
S 10.4443 -11.0382 12.2274
S 10.4132 -11.5293 12.2593
S 10.0406 -1.66081 10.9516
S 9.55847 -1.38664 10.8446
S 9.48904 -1.84085 10.9056
S -6.17436 2.30994 7.70767
S -6.09671 2.78278 7.33258
S -6.1734 2.59289 7.42987
S -3.07531 -14.5767 -12.8737
S -3.08903 -14.6422 -12.4668
S -2.5894 14.9406 -12.4331